66
Properties=species:S:1:pos:R:3:forces:R:3 total_energy=-10.492553710938 pbc="F F F"
O 7.77260469 -5.58964623 1.05286116 0.00503425 0.01001498 0.00195863
O 13.36131919 2.26021627 1.28568071 -0.00710364 -0.00405532 0.00506506
C 9.13746477 -5.46372227 2.91978673 -0.02191968 -0.02272379 -0.01626395
C 12.45267730 0.87481829 2.89914858 0.00780974 0.00261023 -0.01968912
C 1.85918700 1.06212662 -2.38958193 0.00660379 0.00530429 0.01628325
N 2.97854669 1.74835025 -4.47574017 0.02238924 0.01656579 -0.01664070
N 13.18645064 0.90845592 5.32097944 -0.00124220 -0.00046781 0.01463412
N 2.65625842 1.81366195 -0.14374395 0.00369957 0.00857045 0.01544744
N 10.34208462 -3.35437106 3.62417366 0.01768236 0.02659955 0.00938503
N -0.10963301 -0.40304434 -2.58692189 -0.02671678 -0.02124357 0.00730872
C 9.49611996 -7.74657126 4.59454550 0.00069045 0.00110574 -0.00026954
C 15.15783369 2.55384688 6.35674238 0.00109411 0.00047573 -0.00186521
C 4.76007109 3.57258030 0.39481018 0.01164479 -0.00493833 -0.00668456
C 7.37397031 2.31423985 0.26492925 -0.00388086 -0.00090837 0.00937359
C 7.75078385 0.30421592 2.33095601 -0.00124211 0.00699891 -0.00957323
C 10.36131120 -0.98584990 2.13752971 -0.01136395 -0.01304215 0.00493395
H 4.52262577 2.84505064 -4.36234636 0.00043815 -0.00116277 -0.00666282
H 2.35847940 1.13610669 -6.15830624 0.00282470 0.00251459 -0.00130754
H 12.25130404 -0.21058139 6.53770771 0.00191517 0.00351727 0.00143780
H 1.70328418 1.14944803 1.36254968 0.00043256 0.00013876 -0.00193475
H 11.48095450 -3.50210954 5.14285616 0.00010790 -0.00026712 -0.00527305
H -0.69623758 -0.98685247 -4.29156425 -0.00361608 -0.00228240 0.00238125
H -1.06485772 -0.94755203 -1.03389339 -0.00335814 -0.00158107 -0.00447882
H 8.34985931 -9.29621728 3.87043548 0.00241298 0.00408722 0.00079286
H 11.47742041 -8.30142204 4.58202349 -0.00020654 -0.00107213 0.00314885
H 8.90054344 -7.29530591 6.51072408 0.00242455 -0.00199992 0.00176012
H 14.50223637 3.43220285 8.10365765 -0.00011269 -0.00210762 -0.00258228
H 16.85794671 1.45589161 6.75501992 -0.00163961 0.00182742 -0.00036512
H 15.64350046 4.04708683 5.01445600 -0.00449430 -0.00655061 0.00087817
H 4.50567083 4.38065518 2.27707276 -0.00605821 -0.00315305 -0.00438086
H 4.71309312 5.13591866 -0.94965237 -0.00452286 -0.00016648 0.00155549
H 7.63508099 1.44970788 -1.58855078 0.00250751 0.00033693 0.00052870
H 8.78660852 3.79585933 0.49188694 -0.00001983 -0.00076780 -0.00375796
H 7.54616081 1.17475068 4.19021217 0.00023542 -0.00024759 0.00037232
H 6.26637641 -1.10799590 2.12528566 0.00479119 -0.00341919 0.00132201
H 10.71028957 -1.47861050 0.16239719 0.00040407 0.00128873 0.00406176
C -11.91162044 -5.87533147 -4.71381940 0.00137969 0.00290574 0.00118008
C -9.32957389 -5.33966808 -4.67153613 -0.00570645 0.00476178 0.00296898
C -13.62941828 -4.11381041 -3.76310330 0.00785852 0.00247960 0.00118564
C -8.47173376 -3.04058729 -3.69002092 -0.01078689 -0.00022535 -0.00002885
C -12.76628332 -1.81697199 -2.78030675 0.00574649 -0.00514065 -0.00257935
C -10.17304703 -1.22060094 -2.74857728 -0.00043792 -0.00689102 -0.00119831
N -7.54156029 -1.17018327 2.02826987 0.00689436 0.00170492 -0.00211553
C -9.07496866 1.02779808 1.28411630 -0.00315790 -0.00931467 0.00162655
C -6.66585240 5.06983800 -2.44457487 0.00888081 0.00310014 0.00227804
C -9.41487753 5.90174247 -2.18938055 -0.00583373 0.00946846 0.00368929
C -6.72605029 2.20340379 -2.76055055 0.00604675 -0.00661200 -0.00235086
C -11.00485012 3.49810667 -2.31370281 -0.00942486 0.00004215 -0.00096750
C -9.24564802 1.28465052 -1.62575956 -0.00272167 -0.00313592 -0.00313353
H -12.58388165 -7.66013764 -5.47412447 0.00160150 0.00384627 0.00141921
H -7.99269903 -6.71615404 -5.39893603 -0.00190807 0.00284667 0.00154643
H -15.63933921 -4.53165201 -3.78092915 0.00416377 0.00142204 0.00022408
H -6.45570433 -2.69162874 -3.65607523 -0.00191663 0.00207114 0.00043095
H -14.14916793 -0.49860059 -2.03543129 0.00379694 -0.00039530 -0.00131001
H -8.18511184 -2.73930324 1.09834352 0.00167993 0.00720508 0.01032402
H -7.63891333 -1.44273838 3.93529335 -0.00114241 -0.00155480 -0.01094659
H -8.27721962 2.74768633 2.11354400 0.00034712 -0.00284960 -0.00226693
H -10.98418629 0.80065150 2.05362727 -0.00154881 0.00544023 -0.00478225
H -5.75080512 5.97590861 -4.06394175 0.00054427 -0.00150848 0.00535959
H -5.61741247 5.57876418 -0.73473260 0.00009633 0.00056956 -0.00470899
H -9.95108834 7.21297813 -3.69725986 0.00006801 -0.00146551 0.00611791
H -9.69623258 6.85154847 -0.37276089 -0.00051136 0.00058374 -0.00550296
H -5.09929333 1.31703126 -1.84777536 -0.00287517 -0.00130946 -0.00195604
H -6.66202366 1.75907787 -4.78136072 -0.00157731 -0.00272663 0.00387528
H -11.70980474 3.25823111 -4.24599063 0.00070626 -0.00297567 0.00488941
H -12.63902125 3.62461318 -1.05067149 0.00200738 -0.00207201 -0.00418758
56
Properties=species:S:1:pos:R:3:forces:R:3 total_energy=-9.265014648438 pbc="F F F"
O -2.38358562 7.15154350 10.94056084 -0.00049855 -0.00282255 -0.00836216
O -0.16462215 2.05921336 1.50445301 0.00703543 0.01495522 -0.00680330
O 1.82612855 6.45469735 5.20531352 -0.01316003 -0.00734061 0.00214975
C -4.28095346 7.35645264 9.64422339 0.01277624 0.01012527 0.03844973
C -1.86758878 1.40771397 2.89260575 0.01048461 0.03494504 -0.01616977
C -0.41539831 6.88040457 4.82855359 0.02731764 -0.01279490 0.01543240
N -2.22668483 -1.01145699 3.31395373 -0.01308609 -0.03367246 0.01418873
N -1.02358558 8.95530279 3.50656746 -0.01978530 0.01867126 -0.01619125
N -4.47919540 6.43044942 7.31198828 0.00073230 -0.01099527 -0.03073823
C -6.58443381 8.68672522 10.68241520 -0.00004389 -0.00026471 -0.00078441
C -3.50953791 9.94535920 2.80966499 0.00731927 -0.00448217 0.00623928
C -3.69041404 3.29669510 4.06023690 0.00163149 -0.00267671 0.00292110
C -2.43981329 5.09734247 5.98501189 -0.00647791 -0.00067690 -0.00058400
H -0.97715784 -2.18373229 2.48297805 -0.00350686 -0.00458383 0.00312233
H -3.59567754 -1.62243892 4.46586152 0.00167589 -0.00595962 -0.00007014
H 0.50262221 9.92634256 2.90256506 -0.00204700 -0.00369996 0.00263150
H -6.11450823 6.69920181 6.38563723 0.00104336 -0.00030023 -0.00026497
H -8.15016388 7.35848370 10.79551212 -0.00285478 0.00218400 -0.00080053
H -6.14813742 9.39020203 12.56737725 -0.00010095 -0.00186349 -0.00423121
H -7.07843523 10.26444656 9.46190280 -0.00405203 0.00060031 -0.00008975
H -4.48747960 10.64367548 4.48479570 -0.00230218 0.00027304 -0.00331300
H -4.63929688 8.49097026 1.88719799 -0.00154445 0.00265549 0.00009171
H -3.27276909 11.51660530 1.49378477 0.00081136 -0.00446187 0.00221672
H -5.19253380 2.25061107 5.00369698 -0.00127618 0.00387708 0.00265819
H -4.53331181 4.37204164 2.52462627 0.00005722 -0.00102703 -0.00163364
H -1.43075487 3.93762582 7.36424438 0.00066316 0.00756799 -0.00150644
C 3.99455093 1.87594348 -5.68533450 -0.00167271 -0.00443116 0.00102871
C 1.75075629 0.97576128 -4.63163850 0.00549203 -0.00358258 -0.00217434
C 5.86698512 0.17247848 -6.42880718 -0.00703900 -0.00443024 0.00369791
C 1.36991959 -1.62240637 -4.34439706 0.00793913 0.00129723 -0.00382778
C 5.48650277 -2.42696597 -6.13164653 -0.00645109 0.00518668 0.00264976
C 3.21977703 -3.37831780 -5.10927112 -0.00003565 0.00749855 0.00195017
N 3.18415058 -5.55528129 -0.05924911 -0.00583345 -0.00031025 -0.00102261
C 4.15085069 -7.01684743 -2.22325933 0.00199449 0.00832563 0.00438352
C 0.02907601 -9.82455795 -5.55618014 -0.00659517 -0.00471546 0.00527748
C 2.45811152 -10.25270533 -7.04746517 0.00550904 -0.00869036 -0.00329093
C 0.05681987 -7.05349842 -4.76122403 -0.00746050 0.00627741 0.00513673
C 3.91812755 -7.76516888 -6.95294201 0.00837968 0.00163215 -0.00378947
C 2.84913190 -6.22510551 -4.72370348 -0.00044222 0.00401427 -0.00221085
H 4.29116236 3.89548266 -5.89442740 -0.00035422 -0.00370296 0.00020698
H 0.31281477 2.29514213 -3.99480459 0.00333438 -0.00351827 -0.00057347
H 7.62523926 0.86924671 -7.22389620 -0.00276916 -0.00188415 0.00120431
H -0.37738755 -2.25330218 -3.47743450 0.00319885 -0.00139215 -0.00229944
H 6.98612651 -3.70425030 -6.69937797 -0.00338266 0.00015097 0.00077031
H 3.22977960 -3.66707621 -0.48210249 0.00493301 -0.01038572 0.00604099
H 4.21714850 -5.91521964 1.52688457 -0.00384597 0.00518079 -0.00865209
H 6.18944976 -6.69889589 -2.39163867 -0.00013961 -0.00277370 -0.00675932
H 3.86829223 -9.03660287 -1.87364119 -0.00172254 0.00305259 -0.00058298
H -1.64477315 -10.25414347 -6.69324740 0.00240495 -0.00045495 0.00521142
H 0.00739004 -11.04157952 -3.88367025 -0.00260885 0.00125080 -0.00381831
H 2.05321523 -10.78597856 -9.00495022 0.00322003 -0.00107963 0.00467431
H 3.56095645 -11.77042838 -6.17614560 -0.00192424 0.00135199 -0.00457347
H -0.86512817 -6.79449946 -2.92787650 0.00217710 0.00236932 -0.00404155
H -0.98540993 -5.94859878 -6.16681659 0.00354971 0.00114933 0.00317169
H 5.94950349 -8.10686013 -6.76328564 -0.00274179 0.00315294 -0.00172596
H 3.60415050 -6.74024202 -8.72417908 0.00212339 0.00124718 0.00539624
57
Properties=species:S:1:pos:R:3:forces:R:3 total_energy=-9.591552734375 pbc="F F F"
O 7.24024201 3.92156973 8.78008281 -0.00586292 -0.00145276 -0.00461602
O 6.32202287 -1.54544244 0.10348433 -0.00240501 -0.00397450 0.01346058
O 1.56363977 2.96562773 4.85013294 0.00812807 -0.00954660 -0.00135472
O 2.60084197 -1.19660059 -1.79587618 -0.00805246 -0.00247499 0.00054760
C 7.95535598 1.73003612 8.90274121 0.00720388 0.02389384 0.00974784
C 3.96267256 -1.73815216 0.06180979 0.01438299 0.00538201 -0.01827503
C 2.52670599 1.55838999 6.41702946 0.00782014 0.01817513 -0.02009086
N 1.43367858 1.43862265 8.70118232 -0.00689999 -0.01664232 0.02792735
N 6.87124318 -0.19686339 7.70442810 -0.01700493 -0.01304384 -0.00860854
C 10.19536887 1.06370354 10.53619326 0.00225737 -0.00080173 -0.00058735
C 2.10422221 -0.10744414 10.88992310 0.00438378 0.00688219 -0.00900026
C 2.63354281 -2.80000529 2.41971376 0.00261484 0.00484233 0.01254889
C 4.23458372 -2.65800069 4.84318101 -0.00520436 -0.00072926 -0.00328862
C 4.92892348 0.03512978 5.72025405 0.00024813 -0.00380905 -0.00312652
H -0.05308052 2.61419546 8.87644104 0.00269438 -0.00128669 -0.00209461
H 7.66834748 -1.90872789 7.89671744 -0.00082067 0.00004597 -0.00179384
H 11.62101838 0.14547129 9.37230005 0.00183209 -0.00258914 0.00320488
H 9.58054052 -0.19185127 12.04098025 0.00335195 -0.00264942 0.00165246
H 10.97079245 2.79229464 11.33804767 -0.00203151 -0.00294414 -0.00113613
H 0.49143995 -0.23843056 12.16512004 0.00076700 0.00042517 -0.00297123
H 2.63512580 -2.00697031 10.29649297 -0.00040397 0.00223143 0.00215088
H 3.67867393 0.76676624 11.89368872 -0.00006500 -0.00367026 0.00264947
H 2.18243357 -4.78590672 2.08018941 -0.00004871 0.00154264 -0.00163830
H 0.84503478 -1.81709499 2.72754491 0.00157056 -0.00024893 -0.00322075
H 5.96611059 -3.73891349 4.54504493 0.00120697 0.00459064 -0.00155296
H 3.19210337 -3.60059593 6.34999365 -0.00078001 -0.00091048 0.00380833
H 5.78665099 1.01930595 4.12153637 -0.00603435 -0.00012411 0.00164311
C -6.80623346 -5.90165235 -8.85556996 0.00122171 0.00410741 0.00224601
C -4.21790586 -5.43484228 -8.63734718 -0.00515425 0.00820083 0.00439573
C -8.53744496 -4.10641516 -7.98844947 0.00954576 0.00227719 0.00130906
C -3.36778539 -3.16898813 -7.57679658 -0.00736189 0.00083507 0.00016362
C -7.67838115 -1.83418757 -6.94104129 0.00903711 -0.00521937 -0.00321061
C -5.07743691 -1.30222711 -6.75250498 -0.00054048 -0.00721903 0.00127452
N -2.79205676 -1.27376895 -1.73737586 -0.00238395 -0.00027812 -0.01598166
C -4.09171294 0.99405433 -2.67284819 0.00704832 -0.00851793 0.00811997
C -1.43583568 4.89591290 -6.40443130 0.00978630 0.00253026 0.00484441
C -4.16690588 5.80237504 -6.24019293 -0.00469967 0.00819228 0.00374233
C -1.54887762 2.02373331 -6.63895842 0.00898895 -0.00978686 0.00045295
C -5.80704990 3.43641117 -6.40313283 -0.00890989 0.00004450 -0.00054210
C -4.13967940 1.18750034 -5.59975783 -0.00320103 -0.00407709 -0.00179612
H -7.46419933 -7.66669669 -9.66569009 0.00028624 0.00229063 0.00084143
H -2.85139545 -6.83434033 -9.25545281 -0.00245501 0.00187994 0.00092717
H -10.55037014 -4.47627812 -8.11408778 0.00237402 0.00064218 0.00006893
H -1.34787224 -2.88375185 -7.34859061 -0.00472515 0.00124274 -0.00036744
H -9.05314961 -0.48037312 -6.25234597 0.00229948 -0.00034731 -0.00108153
H -2.81728553 -1.33007219 0.18264957 0.00406329 0.00361261 -0.00816327
H -0.92607620 -1.28264199 -2.33333399 -0.00957245 -0.00015302 0.01589891
H -3.17714525 2.66954502 -1.87238383 -0.00329910 0.00643225 -0.00523098
H -6.03715717 0.95821364 -1.97089219 0.00001843 0.00050140 -0.00275863
H -0.45449040 5.72685681 -8.02386149 0.00043644 -0.00116437 0.00474188
H -0.41196738 5.42263475 -4.68513405 -0.00016506 -0.00007299 -0.00557447
H -4.61953818 7.12131459 -7.76711974 -0.00095783 -0.00031830 0.00456005
H -4.47411865 6.76403129 -4.43465399 -0.00076881 0.00044855 -0.00468932
H 0.01786757 1.12831046 -5.62490054 -0.00236942 0.00042933 -0.00373545
H -1.39057835 1.52036596 -8.63969182 -0.00199376 -0.00279541 0.00336994
H -6.41974356 3.18300888 -8.36404250 -0.00011533 -0.00280924 0.00368585
H -7.49371007 3.62185312 -5.22043745 0.00077978 -0.00196934 -0.00346976
60
Properties=species:S:1:pos:R:3:forces:R:3 total_energy=-9.770385742188 pbc="F F F"
O -5.94559725 9.17940516 6.30067150 -0.00244879 -0.00662110 -0.00795191
O -8.45286760 4.47619297 -1.73015315 0.01534795 -0.00260568 0.00729127
C -7.95582095 8.07694208 6.61888481 0.02295172 0.02525424 0.02059782
C -9.39013897 5.44367704 0.14923317 0.00357115 -0.00880558 -0.00561677
C -3.02148641 1.47582916 -0.32551370 -0.00425180 0.01305873 0.00692797
C -3.69222950 3.62983364 0.93595081 -0.01520568 -0.01697674 0.00358244
C -0.75382065 4.65534396 -1.85014657 -0.00009708 -0.00487108 -0.00236770
N -1.18406730 2.14761405 -2.06361496 -0.00428265 0.02141971 0.00841857
N -11.85321619 6.02398682 0.06498131 -0.01744008 0.01018452 0.01112429
N -8.92722206 6.51346519 4.89188593 -0.01727404 -0.02127618 -0.02976672
N -2.25030762 5.59154482 -0.01027132 0.00558577 -0.02280629 -0.01242384
C -9.44003691 8.42725588 9.03057457 0.00025333 0.00021905 -0.00231977
C -13.43892121 7.45355968 1.82729320 0.00399480 0.00071112 0.00048816
C -5.70396952 3.85513404 2.94723331 0.00745634 0.00220510 -0.01056349
C -7.67178965 5.96525365 2.47079011 -0.00283789 0.00700768 0.01294689
H -3.84350320 -0.38252632 -0.05549243 0.00805105 0.00517700 -0.00686063
H 0.56052344 5.74756885 -2.98979479 -0.00484888 -0.00560456 0.00531480
H -0.36775425 0.96332147 -3.33929737 0.00001209 0.00761229 0.00518658
H -12.68136534 5.50238722 -1.57387944 0.00479060 0.00068856 0.00138051
H -10.57885094 5.65395624 5.29297442 0.00508912 0.00044466 -0.00140192
H -2.34097660 7.41327818 0.58273770 0.00278927 -0.00520412 -0.00394546
H -8.50008931 9.84815755 10.18854401 -0.00148975 -0.00348325 -0.00340389
H -9.50832794 6.64689164 10.05994380 -0.00278346 0.00059045 0.00083091
H -11.34718474 9.06034032 8.59100044 -0.00165883 -0.00182468 0.00238699
H -13.93808091 6.29070994 3.45514824 -0.00273701 0.00384602 -0.00048381
H -12.47799258 9.17220725 2.44735114 -0.00313690 -0.00393499 0.00010992
H -15.18602885 8.00975039 0.87885225 0.00520989 -0.00292210 0.00034875
H -4.73300545 4.21220647 4.73352402 -0.00589370 0.00415235 -0.00058424
H -6.68760475 2.05147973 3.12888391 0.00412348 0.00094679 -0.00217795
H -6.64463665 7.67378018 1.95306026 -0.00118040 0.00246919 0.00273019
C 8.32337894 1.34511017 -3.19585868 -0.00021762 -0.00275107 0.00029124
C 6.13193850 0.41879362 -2.05253716 0.00867903 -0.00716313 -0.00418477
C 10.16391536 -0.33831446 -4.05480198 -0.00602222 -0.00429464 0.00329972
C 5.77524587 -2.18918681 -1.79527134 0.00653052 0.00163395 -0.00393010
C 9.80469698 -2.94247059 -3.79022029 -0.00637486 0.00485284 0.00289546
C 7.59177362 -3.92080921 -2.68512264 0.00070953 0.00470396 0.00238668
N 7.68907439 -6.26342893 2.30818542 -0.00423282 -0.00345912 -0.00141518
C 8.61357190 -7.64462083 0.07783837 0.00248200 0.00919688 0.00586119
C 4.40978973 -10.36724849 -3.17730858 -0.00640337 -0.00531745 0.00497140
C 6.81869061 -10.77258655 -4.70886384 0.00566371 -0.00870727 -0.00353140
C 4.45142558 -7.61013966 -2.33554752 -0.00723046 0.00580626 0.00661421
C 8.24966424 -8.26808434 -4.64523506 0.00854116 0.00209781 -0.00459495
C 7.24218115 -6.77770221 -2.35701715 -0.00119219 0.00297246 -0.00249500
H 8.62738383 3.36530896 -3.39250233 -0.00119074 -0.00350070 0.00056381
H 4.73581685 1.72742195 -1.32112694 0.00063771 -0.00102125 0.00032986
H 11.88629887 0.36929856 -4.92005676 -0.00386133 -0.00136216 0.00185454
H 4.09287716 -2.87558886 -0.84562500 0.00258904 -0.00100193 -0.00199895
H 11.27874683 -4.20623312 -4.45182565 -0.00399244 0.00077259 0.00122366
H 7.86744368 -4.36429452 2.02393381 0.00377324 -0.00965608 0.00538069
H 8.63963056 -6.80580276 3.89484019 -0.00391468 0.00617564 -0.00831553
H 10.64760424 -7.31660816 -0.13121121 -0.00047905 -0.00302504 -0.00697672
H 8.34113584 -9.67580303 0.36707675 -0.00157381 0.00401595 -0.00071076
H 2.72044837 -10.77417337 -4.29938662 0.00263250 -0.00061037 0.00517976
H 4.40914229 -11.61530007 -1.52708574 -0.00290350 0.00186643 -0.00411968
H 6.39046123 -11.32135315 -6.65671083 0.00345124 -0.00088912 0.00485401
H 7.95502799 -12.27199312 -3.84784556 -0.00225830 0.00177733 -0.00478961
H 3.58001904 -7.38891717 -0.47229107 0.00226235 0.00250238 -0.00384265
H 3.37132802 -6.48350840 -3.69434099 0.00320446 0.00130217 0.00225645
H 10.29119635 -8.58460901 -4.53508967 -0.00311584 0.00303864 -0.00160545
H 7.85646388 -7.22570514 -6.39034634 0.00215884 0.00100527 0.00477804
62
Properties=species:S:1:pos:R:3:forces:R:3 total_energy=-10.555908203125 pbc="F F F"
O -2.13088099 11.14400390 6.19934871 0.00729227 -0.00196557 0.00484823
O -3.28331029 3.55074303 9.91264957 0.00233412 0.00295588 -0.00881580
C -4.02793323 10.42874260 5.08996749 0.00560889 0.01758566 -0.00329587
C -3.12145351 5.62174672 8.87617521 -0.00758725 -0.01317775 0.01449051
C -1.74519913 4.22499341 -3.48548101 0.00101571 0.00256408 0.01542703
C -2.24704049 2.21158660 -1.82605725 0.00473764 0.01541785 0.00692182
C -0.99909628 6.58601930 -2.52215797 -0.00298143 -0.01322369 0.01074814
C -1.99456386 2.55893714 0.79665139 0.00241312 0.01356785 -0.01593525
C -0.74562037 6.93390553 0.10116817 -0.00646713 -0.01727625 -0.00950021
C -1.24136534 4.91888758 1.76687106 -0.00325579 0.00129024 -0.00396714
N -2.68673335 7.73736209 10.18876838 0.00011184 0.02191117 -0.00505835
N -4.75537098 8.01940559 4.94479352 -0.01115888 -0.01979483 0.00502518
C -5.69538842 12.33025950 3.76679303 -0.00026330 -0.00073072 -0.00027872
C -2.31780953 7.83656147 12.92254162 -0.00088540 -0.01013991 -0.00643855
C -0.97821314 5.27713234 4.59899915 0.01050529 -0.00089484 -0.00216555
C -3.48455042 5.75932719 5.98675821 0.00413041 0.00511993 -0.00944714
H -1.93253766 3.95766520 -5.50259807 0.00029395 -0.00005604 0.00083394
H -2.81658741 0.39578513 -2.56819767 0.00043379 0.00029831 0.00018365
H -0.60583607 8.13203393 -3.79862658 -0.00011878 -0.00045430 0.00031453
H -2.37058376 1.00488184 2.06793006 0.00040796 0.00009544 0.00097551
H -0.15860192 8.74644685 0.83890364 0.00016366 -0.00043746 0.00108335
H -2.45856770 9.35364836 9.18106948 0.00270862 -0.00419560 0.00199632
H -6.33146090 7.68654233 3.93271261 0.00229925 -0.00077271 0.00230380
H -5.69326545 11.94479683 1.74556587 -0.00305347 0.00092021 -0.00033852
H -7.61027933 12.20496091 4.50882601 -0.00119597 0.00069777 -0.00306635
H -4.94872588 14.21890342 4.10673369 -0.00102842 -0.00447328 -0.00045597
H -2.31307227 9.79440202 13.56719971 -0.00038022 -0.00290250 -0.00449629
H -3.83517846 6.80811316 13.86934024 0.00300119 0.00106011 -0.00061697
H -0.51795772 6.95368541 13.40723611 -0.00214129 0.00063227 0.00271592
H -0.11602964 3.57538564 5.38216583 -0.00240694 0.00138019 0.00244397
H 0.31956204 6.83369920 4.97360052 -0.00205328 -0.00020062 0.00033075
H -4.69667342 4.15268531 5.54550716 -0.00196824 0.00446263 0.00297635
C 0.56349658 -13.54055983 -7.32170474 0.00183829 0.00327919 0.00136812
C 3.14390330 -12.99557239 -7.24380582 -0.00625093 0.00530718 0.00344461
C -1.17253625 -11.79160044 -6.37808698 0.00817696 0.00285299 0.00104777
C 3.98253758 -10.70288891 -6.23180782 -0.00782704 0.00074794 0.00007946
C -0.32902156 -9.49491070 -5.37756665 0.00620453 -0.00546028 -0.00290254
C 2.26167221 -8.89126220 -5.30928508 -0.00006407 -0.00681399 -0.00075114
N 4.62333268 -8.84592557 -0.40521148 0.00530973 0.00298845 -0.00317595
C 3.18656640 -6.61958406 -1.24358328 -0.00288800 -0.01119676 0.00251539
C 5.80982166 -2.62958002 -4.89013825 0.00877728 0.00281613 0.00324319
C 3.05992899 -1.77089973 -4.78072995 -0.00506156 0.00878102 0.00393548
C 5.74983508 -5.50052916 -5.16689503 0.00791666 -0.00807848 -0.00089912
C 1.46069522 -4.16440040 -4.96579707 -0.00889131 0.00035594 -0.00132765
C 3.16163904 -6.38623015 -4.16228508 -0.00094361 -0.00228780 -0.00305585
H -0.08952317 -15.32240187 -8.10264392 0.00108694 0.00327121 0.00129258
H 4.50524012 -14.35357966 -7.96057511 -0.00234131 0.00253132 0.00153103
H -3.18020874 -12.21440075 -6.41698666 0.00354337 0.00105915 0.00011280
H 6.00176949 -10.35311037 -6.15635357 -0.00409350 0.00189363 0.00029041
H -1.71896915 -8.17857440 -4.64419520 0.00325439 -0.00036118 -0.00105286
H 4.04765722 -10.41326814 -1.37563634 0.00082872 0.00721001 0.01029476
H 4.45477538 -9.11228015 1.49453099 -0.00077790 -0.00123170 -0.01058839
H 3.99285778 -4.91377253 -0.39244659 0.00028776 -0.00288289 -0.00259009
H 1.23882315 -6.78961780 -0.56239877 -0.00274712 0.00588493 -0.00467111
H 6.81227979 -1.75373788 -6.47332336 0.00034538 -0.00172708 0.00548737
H 6.78050911 -2.10681781 -3.13932485 0.00012767 0.00053596 -0.00517161
H 2.61664080 -0.46978952 -6.32631027 -0.00089941 -0.00081006 0.00575052
H 2.69697852 -0.79880005 -2.99052805 -0.00078622 0.00065809 -0.00560156
H 7.32047791 -6.38174047 -4.14810505 -0.00400291 -0.00086221 -0.00354736
H 5.93362984 -5.97471062 -7.17326116 -0.00198121 -0.00248985 0.00404610
H 0.86547312 -4.41909711 -6.93251065 0.00012836 -0.00314758 0.00455137
H -0.23995655 -4.01360136 -3.79819316 0.00126321 -0.00208885 -0.00334353
53
Properties=species:S:1:pos:R:3:forces:R:3 total_energy=-8.721435546875 pbc="F F F"
O 0.25835975 -7.41881313 -10.24173094 -0.00290698 -0.00156521 0.00544640
O -4.32157871 -5.11128056 -4.21436818 0.01030849 0.00186798 0.00024825
O 3.25944016 -2.46537726 -3.17409890 0.00496882 -0.00310437 -0.00194039
C 1.73910979 -5.70117749 -9.80967282 -0.00113558 -0.02241739 -0.02214649
C -2.89863743 -4.66218144 -5.98964620 -0.01509753 -0.00434106 0.00954052
N -3.78936876 -4.13259501 -8.29782308 0.00955672 0.01295490 -0.01505494
N 1.58882528 -4.22112953 -7.77902137 -0.00495321 0.02263383 0.02438940
C 3.84232276 -5.13333208 -11.65219075 0.00126117 0.00024184 0.00139818
C -6.46889630 -4.05095837 -8.96323149 0.00477087 -0.00495394 0.00783172
C 0.61056787 -2.68271649 -3.53253693 -0.00763261 0.00226464 0.00290127
C -0.01921065 -4.66999886 -5.54758913 0.01087323 -0.00076088 -0.00709363
H 3.54126535 -1.45136284 -1.68940917 -0.00152872 -0.00275080 -0.00363223
H -2.50603766 -4.01266243 -9.70363866 -0.00624846 -0.00194420 0.00313833
H 2.95366011 -2.91032212 -7.54215006 -0.00167268 -0.00288185 0.00147664
H 5.65004821 -5.23278600 -10.67542093 0.00157251 0.00282848 -0.00206018
H 3.57002279 -3.25555261 -12.44277882 0.00345825 0.00118872 -0.00072420
H 3.80023773 -6.53385645 -13.16058751 -0.00090839 0.00298531 0.00336408
H -6.73612495 -2.95969427 -10.69074940 0.00309925 -0.00162721 0.00273616
H -7.16486299 -5.97170592 -9.25271168 -0.00215108 0.00247705 -0.00005421
H -7.54800265 -3.17882017 -7.43455610 0.00332876 -0.00228375 -0.00251649
H -0.28472390 -3.23136958 -1.76379394 -0.00378482 0.00004732 -0.00438606
H -0.14163021 -0.85265992 -4.11388115 -0.00301499 0.00059969 -0.00108677
H 0.45734103 -6.52329745 -4.78473126 -0.00286496 -0.00105961 -0.00091749
C -1.96739393 -2.98747334 3.09464829 0.00075245 0.00155344 0.00114140
C 0.61534366 -2.49631578 3.32513941 -0.00616438 0.00546073 0.00268364
C -3.71939517 -1.17015173 3.85730341 0.00762949 0.00183454 0.00108029
C 1.43937461 -0.18068006 4.29493388 -0.00706395 0.00079506 -0.00047877
C -2.89129240 1.13994265 4.83687337 0.00650757 -0.00530932 -0.00226124
C -0.29752143 1.69304035 5.04834877 -0.00144969 -0.00585316 -0.00015064
N 2.00040113 1.71576126 9.95899902 0.00529785 0.00266174 -0.00319724
C 0.61103215 3.96939380 9.11344526 -0.00332882 -0.01144226 0.00274974
C 3.24458814 7.95151013 5.40299951 0.00919671 0.00343914 0.00270469
C 0.50042563 8.81171384 5.60351087 -0.00513418 0.00841526 0.00355918
C 3.18273451 5.07373206 5.18457896 0.00816305 -0.00805092 -0.00049339
C -1.10256885 6.42639180 5.39247927 -0.00941428 -0.00019148 -0.00086454
C 0.59312972 4.20046658 6.19404038 -0.00150241 -0.00219788 -0.00357077
H -2.61626414 -4.78078628 2.33171383 0.00134701 0.00406091 0.00111219
H 1.98175934 -3.92418108 2.77050738 -0.00185045 0.00256589 0.00098213
H -5.72839631 -1.55747032 3.69372668 0.00398669 0.00118049 0.00025574
H 3.45520996 0.13610272 4.50576590 -0.00384406 0.00166256 -0.00010703
H -4.29897708 2.50240446 5.44083546 0.00367171 -0.00035900 -0.00090961
H 1.38047001 0.15844592 8.99849751 0.00124144 0.00740939 0.01075699
H 1.82620141 1.46131214 11.85981668 -0.00073540 -0.00112800 -0.01044618
H 1.44930621 5.65974709 9.96362433 0.00040953 -0.00280742 -0.00257508
H -1.34115392 3.83884950 9.79053182 -0.00247458 0.00593275 -0.00472896
H 4.17768881 8.79066703 3.75829012 0.00051130 -0.00139970 0.00568160
H 4.28485068 8.51655045 7.09998258 0.00009805 0.00034594 -0.00544708
H 0.01767247 10.16210147 4.11242543 -0.00054938 -0.00128289 0.00574454
H 0.18390286 9.72247058 7.43423216 -0.00068751 0.00068751 -0.00503443
H 4.74959815 4.21203976 6.22586648 -0.00393958 -0.00085567 -0.00354867
H 3.37352827 4.55800309 3.18912008 -0.00178087 -0.00241643 0.00407589
H -1.68744457 6.18468253 3.42102616 0.00024502 -0.00297642 0.00433922
H -2.80893827 6.57538010 6.55305376 0.00160942 -0.00211637 -0.00388197
63
Properties=species:S:1:pos:R:3:forces:R:3 total_energy=-10.714599609375 pbc="F F F"
O -5.81864694 5.12477351 -12.19359003 0.00004667 0.00212847 0.00618448
O -6.69511806 -0.98022033 -6.39498380 0.00783778 0.00511336 -0.00309220
O 0.78459208 1.32142104 2.05663488 0.00918147 -0.01221162 0.00565433
C -5.11221318 3.17329151 -13.21496659 -0.00567111 0.01869419 -0.00905683
C -6.19487840 0.89020103 -7.67435146 -0.01296685 -0.02270173 0.00589727
C 1.01094913 -0.03234177 -2.23966642 -0.00758226 0.01145029 -0.00519802
C -1.23694144 3.84429705 -1.11035305 0.00536824 -0.01407652 -0.02039682
C 0.38138114 0.34986877 -4.79440898 -0.00735030 0.01668265 0.02393806
C -1.86959674 4.21578019 -3.66696538 0.01276416 -0.02046078 0.00862639
C 0.19466511 1.70969691 -0.40125326 -0.01273527 0.01383154 -0.02022299
C -1.06572165 2.46790639 -5.50754866 -0.00243455 -0.00120622 0.00389361
N -7.76421642 2.86614272 -7.84195811 0.00237387 0.01994140 -0.00261125
N -4.08813741 1.22144198 -11.98783387 0.00275497 -0.01950560 0.00881860
C -5.36360333 2.88425894 -16.04284264 0.00176962 0.00032889 0.00009201
C -10.19002990 3.09654397 -6.54139993 0.00645669 -0.00667109 -0.00093708
C -1.77748548 2.83949405 -8.25725772 0.00004774 0.00803096 0.00714107
C -3.73644292 0.92788835 -9.23902410 0.00955972 0.00730129 -0.00005665
H 0.00865937 2.54473120 3.13750083 -0.00213703 0.00345150 -0.00259350
H 2.10507733 -1.65362040 -1.65923139 -0.00012188 0.00007185 0.00078451
H -1.85646402 5.17909582 0.29978373 -0.00027782 0.00107335 0.00232240
H 0.99420740 -0.99883283 -6.19989161 0.00035719 0.00010126 0.00001019
H -2.99151858 5.83389883 -4.21445379 0.00064151 -0.00073857 -0.00037386
H -7.24987422 4.26529562 -9.05067883 -0.00159893 -0.00291063 0.00179198
H -3.59267240 -0.27143916 -13.05676913 -0.00175569 0.00090017 0.00260642
H -6.05752770 4.65285829 -16.83527705 0.00117098 -0.00350826 0.00240875
H -3.52737029 2.44542392 -16.85813954 -0.00116826 -0.00216950 -0.00274778
H -6.69766545 1.37438753 -16.45547592 0.00127105 -0.00080884 -0.00247233
H -10.45213673 5.03579657 -5.89376150 0.00108279 -0.00213586 -0.00181163
H -10.25025976 1.83150548 -4.91111342 0.00215410 0.00189764 -0.00496359
H -11.71873366 2.59684203 -7.83225696 -0.00087861 0.00053096 0.00263553
H -2.50687995 4.75042534 -8.50447402 0.00083860 -0.00166592 -0.00175770
H -0.06469748 2.68137815 -9.39264940 -0.00266698 -0.00101724 -0.00315064
H -2.90297010 -0.93448181 -8.95466211 -0.00642340 0.00051602 -0.00177127
C 1.72404229 -8.53760445 5.21062320 0.00142756 0.00342770 0.00141059
C 4.30409438 -7.99134108 5.24027183 -0.00601053 0.00575549 0.00363440
C 0.01567065 -6.83563339 6.28141067 0.00842940 0.00306954 0.00140352
C 5.16714599 -5.73648632 6.31435639 -0.00748499 0.00127199 0.00061226
C 0.88709544 -4.58674204 7.36770368 0.00703927 -0.00484780 -0.00338848
C 3.47735453 -3.96756549 7.37269752 -0.00169350 -0.00677339 -0.00147385
N 6.17045926 -4.25122644 12.09043217 0.00581422 0.00209312 -0.00351081
C 4.66630529 -1.99199327 11.50794850 -0.00209981 -0.01326631 0.00325917
C 7.00132027 2.25899123 7.88657657 0.00578112 0.00154525 0.00341632
C 4.27652188 3.04760499 7.47176579 -0.00309461 0.00923173 -0.00245824
C 6.96814613 -0.58887307 7.51244557 0.00858498 -0.00644065 -0.00021247
C 2.65763890 0.76164501 8.19804340 -0.01069310 0.00117138 0.00159692
C 4.43702431 -1.52690767 8.62674134 -0.00072268 -0.00310210 -0.00252821
H 1.04944003 -10.28143303 4.36486805 0.00107366 0.00318864 0.00152221
H 5.64630551 -9.31588090 4.43160966 -0.00214415 0.00250978 0.00150692
H -1.99232081 -7.26000790 6.27432764 0.00368966 0.00128340 0.00030048
H 7.18676852 -5.38326516 6.33557304 -0.00389353 0.00183909 0.00050928
H -0.48231121 -3.31867973 8.21633555 0.00313718 -0.00012426 -0.00139102
H 5.52702981 -5.75872617 11.06654786 0.00191290 0.00687558 0.01095375
H 6.14648075 -4.63890489 13.97661249 -0.00167826 -0.00064852 -0.01057673
H 5.50890076 -0.34211349 12.42993736 0.00011633 -0.00229944 -0.00272479
H 2.77194080 -2.24697516 12.30310331 -0.00334141 0.00692478 -0.00444220
H 8.28853912 3.19945832 6.56872463 -0.00077734 -0.00162980 0.00500387
H 7.58981555 2.71800212 9.81581105 0.00070508 -0.00007362 -0.00312010
H 3.99185442 3.50740998 5.47563695 0.00007048 0.00023723 0.00350203