66
Properties=Z:I:1:pos:R:3:forces:R:3 total_energy=-35435.3032462971
8 4.11308363 -2.95791222 0.55714991 0.25887178 0.51499144 0.10071690
8 7.07050281 1.19605446 0.68035266 -0.36528419 -0.20853313 0.26045609
6 4.83533620 -2.89127616 1.54508398 -1.12715628 -1.16850532 -0.83632669
6 6.58967042 0.46293372 1.53416275 0.40159334 0.13422354 -1.01245617
6 0.98383900 0.56205298 -1.26451180 0.33958084 0.27275780 0.83731914
7 1.57617840 0.92518674 -2.36845876 1.15130205 0.85184794 -0.85569997
7 6.97796639 0.48073398 2.81573994 -0.06387655 -0.02405578 0.75251739
7 1.40563086 0.95974819 -0.07606599 0.19023971 0.44071066 0.79434002
7 5.47279331 -1.77505601 1.91782935 0.90926433 1.36780509 0.48259808
7 -0.05801527 -0.21328180 -1.36893957 -1.37383331 -1.09238928 0.37582983
6 5.02512827 -4.09930734 2.43132780 0.03550440 0.05685949 -0.01386032
6 8.02117696 1.35143703 3.36384186 0.05626145 0.02446304 -0.09591304
6 2.51892014 1.89052733 0.20892447 0.59879972 -0.25393937 -0.34373421
6 3.90213549 1.22464250 0.14019446 -0.19956203 -0.04671031 0.48200981
6 4.10153655 0.16098407 1.23348831 -0.06387192 0.35989875 -0.49227572
6 5.48296758 -0.52168909 1.13113156 -0.58435833 -0.67065492 0.25371414
1 2.39326954 1.50553536 -2.30845336 0.02253060 -0.05979209 -0.34261629
1 1.24805305 0.60120153 -3.25883402 0.14525205 0.12930553 -0.06723647
1 6.48310832 -0.11143483 3.45960455 0.09848209 0.18086546 0.07393472
1 0.90133881 0.60826146 0.72102995 0.02224315 0.00713533 -0.09948893
1 6.07545706 -1.85323582 2.72148120 0.00554845 -0.01373588 -0.27115138
1 -0.36843291 -0.52221963 -2.27099710 -0.18594648 -0.11736583 0.12244891
1 -0.56349822 -0.50142274 -0.54711260 -0.17268266 -0.08130196 -0.23031039
1 4.41855350 -4.91934437 2.04814543 0.12408053 0.21017349 0.04077054
1 6.07358690 -4.39292161 2.42470144 -0.01062072 -0.05513119 0.16192052
1 4.70996287 -3.86050809 3.44532544 0.12467549 -0.10284011 0.09050909
1 7.67424993 1.81624281 4.28826924 -0.00579476 -0.10837828 -0.13278630
1 8.92083767 0.77042435 3.57460118 -0.08431221 0.09396980 -0.01877524
1 8.27818064 2.14162527 2.65353478 -0.23110641 -0.33684621 0.04515736
1 2.38429737 2.31814197 1.20497453 -0.31152597 -0.16213650 -0.22527308
1 2.49406048 2.71781003 -0.50253419 -0.23257502 -0.00856075 0.07998658
1 4.04030925 0.76715206 -0.84062454 0.12894146 0.01732565 0.02718687
1 4.64967114 2.00868145 0.26029526 -0.00101970 -0.03948190 -0.19324225
1 3.99325474 0.62165104 2.21736391 0.01210579 -0.01273160 0.01914548
1 3.31602227 -0.58632595 1.12465229 0.24637312 -0.17582198 0.06798055
1 5.66763890 -0.78244667 0.08593686 0.02077813 0.06626922 0.20886429
6 -6.30335557 -3.10909028 -2.49444481 0.07094658 0.14941929 0.06068221
6 -4.93699592 -2.82562954 -2.47206948 -0.29343772 0.24486079 0.15267123
6 -7.21237468 -2.17693385 -1.99134772 0.40410171 0.12750627 0.06096812
6 -4.48304666 -1.60900886 -1.95267420 -0.55468469 -0.01158797 -0.00148353
6 -6.75562351 -0.96149979 -1.47127438 0.29549666 -0.26434309 -0.13263563
6 -5.38334251 -0.64591394 -1.45448388 -0.02251877 -0.35435082 -0.06161963
7 -3.99082025 -0.61923407 1.07331376 0.35452257 0.08767059 -0.10878502
6 -4.80226469 0.54388710 0.67952481 -0.16238589 -0.47898002 0.08364064
6 -3.52741578 2.68284166 -1.29361280 0.45667002 0.15941575 0.11714163
6 -4.98213665 3.12306638 -1.15856983 -0.29998273 0.48688823 0.18971109
6 -3.55927111 1.16599061 -1.46081986 0.31093667 -0.34000302 -0.12088619
6 -5.82351357 1.85111759 -1.22435831 -0.48464622 0.00216744 -0.04975090
6 -4.89258428 0.67980751 -0.86031457 -0.13995402 -0.16125564 -0.16113274
1 -6.65910074 -4.05356866 -2.89678077 0.08235252 0.19778333 0.07297878
1 -4.22955250 -3.55403425 -2.85699277 -0.09811699 0.14638179 0.07952070
1 -8.27597861 -2.39804602 -2.00078074 0.21410986 0.07312430 0.01152267
1 -3.41621025 -1.42434802 -1.93471092 -0.09855717 0.10650240 0.02216036
1 -7.48741424 -0.26384796 -1.07710342 0.19524668 -0.02032716 -0.06736348
1 -4.33137293 -1.44957627 0.58121813 0.08638555 0.37050044 0.53088293
1 -4.04233724 -0.76346397 2.08246673 -0.05874514 -0.07995110 -0.56289680
1 -4.38011425 1.45401241 1.11843887 0.01784964 -0.14653246 -0.11657033
1 -5.81257875 0.42368636 1.08673232 -0.07964308 0.27974813 -0.24591340
1 -3.04319380 3.16231339 -2.15054450 0.02798751 -0.07756923 0.27560145
1 -2.97260548 2.95215369 -0.38880360 0.00495349 0.02928798 -0.24214622
1 -5.26588707 3.81694213 -1.95650488 0.00349722 -0.07535962 0.31459587
1 -5.13102327 3.62568187 -0.19725649 -0.02629521 0.03001714 -0.28297384
1 -2.69842875 0.69694265 -0.97780022 -0.14784732 -0.06733520 -0.10058371
1 -3.52538970 0.93086355 -2.53018612 -0.08110861 -0.14020908 0.19927509
1 -6.19655934 1.72418096 -2.24688059 0.03631738 -0.15301524 0.25142380
1 -6.68827935 1.91806193 -0.55599119 0.10322372 -0.10654713 -0.21533422
56
Properties=Z:I:1:pos:R:3:forces:R:3 total_energy=-32316.98955600532
8 -1.26133869 3.78443233 5.78949317 -0.02563649 -0.14514149 -0.42999994
8 -0.08711426 1.08968835 0.79612193 0.36177668 0.76902903 -0.34984007
8 0.96634523 3.41567738 2.75453219 -0.67671656 -0.37746968 0.11054469
6 -2.26538211 3.89286554 5.10350120 0.65698127 0.52066279 1.97716640
6 -0.98828503 0.74492985 1.53070043 0.53914081 1.79694783 -0.83148376
6 -0.21981923 3.64095185 2.55515950 1.40473080 -0.65794081 0.79356663
7 -1.17831040 -0.53523978 1.75366809 -0.67291441 -1.73150908 0.72961449
7 -0.54165794 4.73894026 1.85559485 -1.01740195 0.96011566 -0.83258830
7 -2.37028719 3.40284594 3.86933602 0.03765641 -0.56540003 -1.58062477
6 -3.48433093 4.59681519 5.65288843 -0.00225692 -0.01361195 -0.04033602
6 -1.85716674 5.26285534 1.48681009 0.37637234 -0.23048266 0.32083697
6 -1.95288223 1.74453523 2.14858398 0.08389466 -0.13764209 0.15020914
6 -1.29109308 2.69739640 3.16713064 -0.33310783 -0.03480763 -0.03003051
1 -0.51708945 -1.15558090 1.31393488 -0.18033015 -0.23571023 0.16055681
1 -1.90274985 -0.85855736 2.36323120 0.08617781 -0.30645626 -0.00360675
1 0.26597611 5.25279218 1.53597067 -0.10526107 -0.19025976 0.13531729
1 -3.23565712 3.54506352 3.37913235 0.05365178 -0.01543846 -0.01362532
1 -4.31287927 3.89394033 5.71273672 -0.14679882 0.11230590 -0.04116494
1 -3.25345291 4.96907894 6.65036699 -0.00519106 -0.09582460 -0.21757776
1 -3.74574512 5.43170904 5.00702134 -0.20836395 0.03086921 -0.00461513
1 -2.37467099 5.63238826 2.37325074 -0.11838296 0.01404029 -0.17036146
1 -2.45500920 4.49322617 0.99866177 -0.07941888 0.13655091 0.00471592
1 -1.73187413 6.09432264 0.79047655 0.04172185 -0.22943879 0.11398843
1 -2.74776946 1.19097162 2.64784136 -0.06562387 0.19936765 0.13668975
1 -2.39892434 2.31358388 1.33597416 0.00294237 -0.05281205 -0.08400522
1 -0.75712257 2.08370102 3.89698875 0.03410109 0.38916204 -0.07746433
6 2.11382448 0.99270614 -3.00854825 -0.08601428 -0.22785961 0.05289844
6 0.92645996 0.51635042 -2.45095656 0.28241179 -0.18422384 -0.11180916
6 3.10467358 0.09127164 -3.40197690 -0.36196026 -0.22781231 0.19015435
6 0.72492994 -0.85854014 -2.29895500 0.40824685 0.06670631 -0.19683254
6 2.90333107 -1.28429457 -3.24472632 -0.33172869 0.26671005 0.13625626
6 1.70383195 -1.78772808 -2.70370876 -0.00183320 0.38559129 0.10028186
7 1.68497925 -2.93972709 -0.03135327 -0.29996833 -0.01595371 -0.05258477
6 2.19653472 -3.71315427 -1.17649770 0.10256089 0.42812149 0.22540986
6 0.01538635 -5.19893010 -2.94020274 -0.33913758 -0.24247892 0.27137918
6 1.30077608 -5.42549585 -3.72935648 0.28328648 -0.44687668 -0.16922658
6 0.03006777 -3.73254913 -2.51953025 -0.38363468 0.32279769 0.26414152
6 2.07338298 -4.10914877 -3.67933700 0.43090086 0.08392860 -0.19486256
6 1.50769507 -3.29418266 -2.49967523 -0.02273989 0.20642225 -0.11368658
1 2.27078443 2.06139983 -3.11919541 -0.01821474 -0.19041403 0.01064335
1 0.16553438 1.21453643 -2.11395871 0.17146087 -0.18091688 -0.02948904
1 4.03510123 0.45998537 -3.82271972 -0.14239606 -0.09688698 0.06192817
1 -0.19970481 -1.19239569 -1.84017836 0.16449163 -0.07158730 -0.11824207
1 3.69689747 -1.96020406 -3.54515674 -0.17394353 0.00776320 0.03961097
1 1.70912508 -1.94053239 -0.25511755 0.25366580 -0.53405568 0.31064048
1 2.23161799 -3.13019818 0.80799220 -0.19776791 0.26640717 -0.44490876
1 3.27531446 -3.54490163 -1.26560018 -0.00717904 -0.14262952 -0.34757852
1 2.04701128 -4.78196240 -0.99148783 -0.08857665 0.15697063 -0.02997806
1 -0.87037612 -5.42625688 -3.54191258 0.12366761 -0.02339449 0.26798223
1 0.00391064 -5.84294992 -2.05514897 -0.13415258 0.06431878 -0.19634557
1 1.08651428 -5.70769178 -4.76521254 0.16558075 -0.05551686 0.24036290
1 1.88437625 -6.22863998 -3.26827420 -0.09894849 0.06952218 -0.23517750
1 -0.45780593 -3.59549284 -1.54936490 0.11195108 0.12183544 -0.20782504
1 -0.52145627 -3.14786166 -3.26333750 0.18253359 0.05910098 0.16309500
1 3.14834041 -4.28996392 -3.57897521 -0.14098864 0.16213084 -0.08875251
1 1.90723355 -3.56678105 -4.61663491 0.10918920 0.06413263 0.27748607
57
Properties=Z:I:1:pos:R:3:forces:R:3 total_energy=-33913.98536032772
8 3.83136954 2.07520450 4.64621788 -0.30148374 -0.07470399 -0.23736551
8 3.34546910 -0.81781259 0.05476153 -0.12367070 -0.20437719 0.69217148
8 0.82744220 1.56934199 2.56657880 0.41796254 -0.49090635 -0.06966257
8 1.37630575 -0.63321351 -0.95033637 -0.41407452 -0.12726922 0.02815875
6 4.20979141 0.91549533 4.71112588 0.37043874 1.22867176 0.50125454
6 2.09695518 -0.91979014 0.03270832 0.73960375 0.27675433 -0.93974068
6 1.33707470 0.82466414 3.39574440 0.40212813 0.93460361 -1.03311449
7 0.75866973 0.76128602 4.60446556 -0.35481207 -0.85578328 1.43608337
7 3.63610385 -0.10417558 4.07700615 -0.87442945 -0.67074183 -0.44266932
6 5.39515471 0.56288745 5.57551114 0.11607874 -0.04122665 -0.03020278
6 1.11350600 -0.05685697 5.76269684 0.22542323 0.35389676 -0.46281240
6 1.39361029 -1.48169840 1.28045687 0.13446060 0.24900285 0.64529045
6 2.24084431 -1.40655283 2.56290000 -0.26761919 -0.03750009 -0.16910779
6 2.60827294 0.01858987 3.02702687 0.01275937 -0.19586940 -0.16077227
1 -0.02808899 1.38337211 4.69720844 0.13855072 -0.06616432 -0.10770927
1 4.05791311 -1.01005490 4.17876125 -0.04220059 0.00236387 -0.09224304
1 6.14957564 0.07698006 4.95960563 0.09420994 -0.13313905 0.16480170
1 5.06980169 -0.10152328 6.37180980 0.17236435 -0.13623878 0.08497299
1 5.80549104 1.47761810 5.99983405 -0.10446454 -0.15139390 -0.05842221
1 0.26005872 -0.12617197 6.43750173 0.03944076 0.02186314 -0.15278693
1 1.39444796 -1.06204253 5.44866726 -0.02077299 0.11474485 0.11060280
1 1.94666964 0.40575506 6.29386651 -0.00334244 -0.18873253 0.13624135
1 1.15489365 -2.53259176 1.10078839 -0.00250477 0.07932581 -0.08424485
1 0.44717297 -0.96156488 1.44335404 0.08076152 -0.01280051 -0.16561777
1 3.15712850 -1.97854702 2.40513324 0.06206495 0.23606041 -0.07985649
1 1.68918769 -1.90535255 3.36027059 -0.04010976 -0.04681881 0.19583238
1 3.06216261 0.53939327 2.18102225 -0.31029903 -0.00638200 0.08449219
6 -3.60170221 -3.12301869 -4.68616394 0.06282291 0.21121171 0.11549458
6 -2.23201877 -2.87599354 -4.57068547 -0.26504243 0.42170401 0.22603773
6 -4.51781951 -2.17302045 -4.22730373 0.49086316 0.11709792 0.06731463
6 -1.78215457 -1.67695563 -4.00946648 -0.37856395 0.04294106 0.00841369
6 -4.06322270 -0.97060987 -3.67303941 0.46470730 -0.26839104 -0.16509635
6 -2.68686283 -0.68910864 -3.57327033 -0.02779262 -0.37121778 0.06553851
7 -1.47749222 -0.67404923 -0.91937934 -0.12258775 -0.01430152 -0.82181074
6 -2.16524038 0.52603069 -1.41440979 0.36243951 -0.43800997 0.41754602
6 -0.75981122 2.59080450 -3.38907774 0.50323223 0.13011132 0.24910980
6 -2.20503075 3.07048342 -3.30216658 -0.24166697 0.42126436 0.19243852
6 -0.81963041 1.07091312 -3.51318410 0.46223081 -0.50326103 0.02329165
6 -3.07295725 1.81846976 -3.38839062 -0.45816538 0.00228828 -0.02787593
6 -2.19062313 0.62839787 -2.96326305 -0.16460373 -0.20965259 -0.09236029
1 -3.94988261 -4.05703955 -5.11486088 0.01471907 0.11778904 0.04326811
1 -1.50889289 -3.61657571 -4.89777275 -0.12624180 0.09667049 0.04767704
1 -5.58301322 -2.36874343 -4.29378863 0.12207713 0.03302225 0.00354453
1 -0.71326299 -1.52601515 -3.88870513 -0.24297720 0.06390432 -0.01889454
1 -4.79071855 -0.25420241 -3.30859768 0.11824412 -0.01785941 -0.05561456
1 -1.49084271 -0.70384361 0.09665395 0.20894296 0.18576804 -0.41977260
1 -0.49005822 -0.67874464 -1.23474668 -0.49223561 -0.00786861 0.81755556
1 -1.68127219 1.41266183 -0.99082246 -0.16964670 0.33075989 -0.26898805
1 -3.19472472 0.50706462 -1.04295081 0.00094771 0.02578305 -0.14185459
1 -0.24050586 3.03052090 -4.24604295 0.02244267 -0.05987437 0.24383749
1 -0.21800366 2.86953359 -2.47926518 -0.00848773 -0.00375330 -0.28665103
1 -2.44455336 3.76843589 -4.11018112 -0.04925364 -0.01636766 0.23448741
1 -2.36760069 3.57936979 -2.34671690 -0.03953384 0.02306539 -0.24113475
1 0.00945511 0.59707594 -2.97656800 -0.12184059 0.02207706 -0.19208474
1 -0.73586208 0.80454270 -4.57192620 -0.10252335 -0.14374589 0.17328944
1 -3.39718064 1.68437509 -4.42605892 -0.00593051 -0.14445706 0.18953420
1 -3.96549901 1.91660137 -2.76253543 0.04009794 -0.10126763 -0.17842239
60
Properties=Z:I:1:pos:R:3:forces:R:3 total_energy=-33861.4248776427
8 -3.14627332 4.85753009 3.33417044 -0.12592196 -0.34047096 -0.40890402
8 -4.47306312 2.36869837 -0.91555726 0.78922403 -0.13398957 0.37493252
6 -4.21003746 4.27413198 3.50256161 1.18022596 1.29862641 1.05918345
6 -4.96904557 2.88066868 0.07897076 0.18363608 -0.45280154 -0.28882619
6 -1.59890111 0.78097485 -0.17225436 -0.21863654 0.67150750 0.35625086
6 -1.95384293 1.92082448 0.49528364 -0.78190821 -0.87297986 0.18421664
6 -0.39890455 2.46350095 -0.97905501 -0.00499206 -0.25048123 -0.12175214
7 -0.62658118 1.13646796 -1.09201758 -0.22022292 1.10144677 0.43290067
7 -6.27244938 3.18775527 0.03438662 -0.89680578 0.52370955 0.57203451
7 -4.72408059 3.44677597 2.58867352 -0.88826765 -1.09406615 -1.53066767
7 -1.19081104 2.95891691 -0.00543535 0.28723210 -1.17274764 -0.63886012
6 -4.99545041 4.45950998 4.77877236 0.01302676 0.01126401 -0.11928748
6 -7.11156801 3.94425235 0.96696154 0.20542106 0.03656729 0.02510222
6 -3.01840948 2.04004827 1.55960808 0.38342077 0.11339090 -0.54319699
6 -4.05973463 3.15667503 1.30748530 -0.14593030 0.36034972 0.66575645
1 -2.03389349 -0.20242413 -0.02936532 0.41400201 0.26621228 -0.35278810
1 0.29661611 3.04148124 -1.58213064 -0.24933966 -0.28819832 0.27329825
1 -0.19460709 0.50976757 -1.76707937 0.00062169 0.39144004 0.26670491
1 -6.71068687 2.91173676 -0.83286080 0.24634278 0.03540721 0.07098874
1 -5.59808460 2.99194360 2.80092032 0.26169331 0.02286536 -0.07208969
1 -1.23879098 3.92293631 0.30837139 0.14343016 -0.26760685 -0.20288389
1 -4.49805176 5.21141847 5.39154315 -0.07660609 -0.17911608 -0.17503522
1 -5.03158846 3.51738218 5.32349088 -0.14313140 0.03036219 0.04272715
1 -6.00466918 4.79452371 4.54615984 -0.08530055 -0.09382890 0.12274407
1 -7.37571184 3.32889901 1.82838498 -0.14074284 0.19777048 -0.02487853
1 -6.60306668 4.85372112 1.29508193 -0.16130603 -0.20234550 0.00565232
1 -8.03609719 4.23857568 0.46506839 0.26790356 -0.15026056 0.01793346
1 -2.50459762 2.22900278 2.50487204 -0.30306651 0.21352261 -0.03004286
1 -3.53892662 1.08559589 1.65573340 0.21203806 0.04868594 -0.11199479
1 -3.51618889 4.06078797 1.03351457 -0.06069866 0.12697097 0.14039214
6 4.40454070 0.71180137 -1.69117491 -0.01119048 -0.14146584 0.01497618
6 3.24488082 0.22161595 -1.08615546 0.44629407 -0.36834329 -0.21518972
6 5.37851024 -0.17902823 -2.14570795 -0.30967528 -0.22083947 0.16967858
6 3.05612728 -1.15846731 -0.95001630 0.33581314 0.08402116 -0.20209405
6 5.18842013 -1.55708776 -2.00569740 -0.32780878 0.24954329 0.14889067
6 4.01739199 -2.07480205 -1.42090514 0.03648553 0.24188757 0.12272813
7 4.06888132 -3.31446253 1.22143863 -0.21766055 -0.17787526 -0.07277155
6 4.55810414 -4.04535752 0.04119027 0.12762969 0.47292301 0.30139478
6 2.33355930 -5.48610946 -1.68135862 -0.32927482 -0.27343452 0.25563990
6 3.60829424 -5.70060503 -2.49182244 0.29123994 -0.44774623 -0.18159205
6 2.35559203 -4.02711088 -1.23591803 -0.37180554 0.29857016 0.34011666
6 4.36553257 -4.37528007 -2.45815155 0.43920450 0.10787382 -0.23628204
6 3.83239569 -3.58660412 -1.24727926 -0.06130493 0.15285018 -0.12829817
1 4.56541309 1.78084410 -1.79523421 -0.06123037 -0.18001339 0.02899230
1 2.50608535 0.91411197 -0.69910999 0.03279240 -0.05251483 0.01696210
1 6.28995598 0.19542430 -2.60358087 -0.19855775 -0.07004515 0.09536437
1 2.16585646 -1.52169548 -0.44748530 0.13313391 -0.05152136 -0.10279023
1 5.96845341 -2.22584182 -2.35580374 -0.20529970 0.03972821 0.06292318
1 4.16327024 -2.30948428 1.07101922 0.19402798 -0.49653605 0.27668645
1 4.57189378 -3.60147429 2.06105985 -0.20130112 0.31756446 -0.42760213
1 5.63446727 -3.87178076 -0.06943395 -0.02463376 -0.15555395 -0.35875769
1 4.41393724 -5.12021242 0.19424857 -0.08092864 0.20650864 -0.03654878
1 1.43959871 -5.70144474 -2.27513651 0.13536872 -0.03138652 0.26635421
1 2.33321669 -6.14654964 -0.80809865 -0.14930411 0.09597578 -0.21184265
1 3.38168510 -5.99099969 -3.52257827 0.17747006 -0.04572043 0.24960346
1 4.20961784 -6.49405650 -2.03619137 -0.11612656 0.09139407 -0.24629187
1 1.89446374 -3.91004502 -0.24992557 0.11633482 0.12867767 -0.19759719
1 1.78402925 -3.43092352 -1.95496028 0.16478011 0.06696033 0.11603143
1 5.44586441 -4.54277764 -2.39986514 -0.16022308 0.15625329 -0.08255563
1 4.15745998 -3.82367697 -3.38162430 0.11101212 0.05169311 0.24569692
62
Properties=Z:I:1:pos:R:3:forces:R:3 total_energy=-34015.28737687575
8 -1.12761321 5.89715055 3.28055275 0.37498394 -0.10107376 0.24930624
8 -1.73745229 1.87897154 5.24554616 0.12002538 0.15199760 -0.45332707
6 -2.13148962 5.51865072 2.69349373 0.28842098 0.90429181 -0.16948060
6 -1.65180140 2.97489907 4.69706777 -0.39015243 -0.67762776 0.74513266
6 -0.92351924 2.23576934 -1.84443639 0.05222996 0.13185041 0.79329049
6 -1.18908215 1.17032076 -0.96630750 0.24361946 0.79281844 0.35593462
6 -0.52869877 3.48516993 -1.33466799 -0.15331143 -0.67999009 0.55269208
6 -1.05547732 1.35413068 0.42156959 0.12408773 0.69768753 -0.81942424
6 -0.39456515 3.66926333 0.05353587 -0.33255350 -0.88838130 -0.48852088
6 -0.65690199 2.60296217 0.93498753 -0.16741960 0.06634687 -0.20399873
7 -1.42175749 4.09443406 5.39166188 0.00575105 1.12671868 -0.26011105
7 -2.51643295 4.24368499 2.61667100 -0.57381320 -1.01789200 0.25840538
6 -3.01386856 6.52488973 1.99330024 -0.01353944 -0.03757517 -0.01433237
6 -1.22653149 4.14692809 6.83831181 -0.04552914 -0.52141561 -0.33108385
6 -0.51764789 2.79253706 2.43368457 0.54020422 -0.04601456 -0.11135716
6 -1.84394394 3.04770349 3.16805475 0.21239441 0.26327762 -0.48579191
1 -1.02265448 2.09430540 -2.91184834 0.01511553 -0.00288170 0.04288296
1 -1.49047328 0.20944039 -1.35903114 0.02230640 0.01533973 0.00944367
1 -0.32059451 4.30328532 -2.01014582 -0.00610792 -0.02336107 0.01617380
1 -1.25445840 0.53176036 1.09430102 0.02097817 0.00490773 0.05016279
1 -0.08392849 4.62841851 0.44392851 0.00841574 -0.02249512 0.05570815
1 -1.30101748 4.94973558 4.85841081 0.13928297 -0.21574662 0.10265499
1 -3.35046349 4.06754141 2.08110106 0.11823230 -0.03973438 0.11846627
1 -3.01274513 6.32091175 0.92371331 -0.15701588 0.04731914 -0.01740741
1 -4.02718479 6.45858460 2.38596702 -0.06149931 0.03588081 -0.15767820
1 -2.61875192 7.52431665 2.17318901 -0.05288353 -0.23002551 -0.02344694
1 -1.22402464 5.18297228 7.17945004 -0.01955172 -0.14925269 -0.23120874
1 -2.02948823 3.60269690 7.33933586 0.15432753 0.05451310 -0.03172590
1 -0.27409131 3.67973039 7.09480099 -0.11010966 0.03251266 0.13965835
1 -0.06140022 1.89201185 2.84811837 -0.12376994 0.07097229 0.12567410
1 0.16910488 3.61623644 2.63191500 -0.10558400 -0.01031630 0.01700786
1 -2.48537155 2.19750556 2.93455484 -0.10121106 0.22947787 0.15305021
6 0.29818943 -7.16535283 -3.87447775 0.09452876 0.16862288 0.07035162
6 1.66368132 -6.87695801 -3.83325543 -0.32143603 0.27290641 0.17712913
6 -0.62047921 -6.23984375 -3.37513694 0.42047657 0.14670678 0.05387855
6 2.10746729 -5.66372265 -3.29772937 -0.40248294 0.03846066 0.00408600
6 -0.17411064 -5.02448836 -2.84568459 0.31905005 -0.28077914 -0.14925474
6 1.19682491 -4.70505146 -2.80955155 -0.00329461 -0.35038977 -0.03862521
7 2.44656132 -4.68106036 -0.21442859 0.27303754 0.15367242 -0.16331406
6 1.68625765 -3.50293164 -0.65807567 -0.14850707 -0.57576107 0.12934667
6 3.07442400 -1.39151327 -2.58774869 0.45134629 0.14481136 0.16677169
6 1.61924405 -0.93711941 -2.52985233 -0.26027612 0.45153861 0.20237070
6 3.04268048 -2.91075352 -2.73420201 0.40709139 -0.41541252 -0.04623465
6 0.77296631 -2.20370491 -2.62778559 -0.45720996 0.01830319 -0.06827057
6 1.67306666 -3.37944611 -2.20258553 -0.04852242 -0.11764351 -0.15713827
1 -0.04737360 -8.10826265 -4.28773280 0.05589275 0.16821253 0.06646720
1 2.38406945 -7.59558423 -4.21255325 -0.12039511 0.13016583 0.07872880
1 -1.68289332 -6.46357995 -3.39572175 0.18220758 0.05446373 0.00580041
1 3.17599838 -5.47862789 -3.25780071 -0.21049642 0.09737446 0.01493350
1 -0.90963894 -4.32791347 -2.45760128 0.16734761 -0.01857264 -0.05414029
1 2.14192711 -5.51046200 -0.72795511 0.04261453 0.37075396 0.52937832
1 2.35736467 -4.82200907 0.79087143 -0.04000126 -0.06333662 -0.54447740
1 2.11292850 -2.60025540 -0.20767371 0.01479723 -0.14824430 -0.13318790
1 0.65555672 -3.59290958 -0.29760849 -0.14126272 0.30261554 -0.24019835
1 3.60490178 -0.92803775 -3.42553384 0.01776017 -0.08881010 0.28217217
1 3.58808947 -1.11487953 -1.66125851 0.00656506 0.02756020 -0.26593512
1 1.38466613 -0.24860181 -3.34773789 -0.04624956 -0.04165500 0.29570389
1 1.42717900 -0.42270661 -1.58251866 -0.04042909 0.03384038 -0.28804406
1 3.87382854 -3.37707028 -2.19508179 -0.20583809 -0.04433666 -0.18241275
1 3.13994044 -3.16167944 -3.79592482 -0.10187801 -0.12803335 0.20805902
1 0.45798847 -2.33848455 -3.66852519 0.00660054 -0.16185522 0.23404107
1 -0.12697949 -2.12390552 -2.00991646 0.06495693 -0.10741308 -0.17193138
53
Properties=Z:I:1:pos:R:3:forces:R:3 total_energy=-29771.706359035772
8 0.13671804 -3.92586528 -5.41968845 -0.14948306 -0.08048641 0.28006540
8 -2.28688006 -2.70477211 -2.23014671 0.53008435 0.09605548 0.01276554
8 1.72482076 -1.30462094 -1.67966013 0.25550723 -0.15963327 -0.09977896
6 0.92029690 -3.01693200 -5.19105323 -0.05839392 -1.15274958 -1.13881933
6 -1.53389226 -2.46711919 -3.16958301 -0.77634691 -0.22322648 0.49059371
7 -2.00524679 -2.18687423 -4.39101712 0.49142674 0.66616834 -0.77415684
7 0.84076980 -2.23372466 -4.11647919 -0.25470453 1.16387939 1.25415451
6 2.03326883 -2.71644127 -6.16607135 0.06485203 0.01243592 0.07189737
6 -3.42319114 -2.14367400 -4.74313595 0.24532822 -0.25474207 0.40272360
6 0.32309847 -1.41963186 -1.86933730 -0.39248494 0.11645258 0.14918944
6 -0.01016584 -2.47125599 -2.93565657 0.55912447 -0.03912606 -0.36476945
1 1.87395617 -0.76802783 -0.89399647 -0.07861001 -0.14145195 -0.18677694
1 -1.32613749 -2.12340866 -5.13494240 -0.32130902 -0.09997487 0.16137956
1 1.56300900 -1.54007553 -3.99113234 -0.08601274 -0.14819082 0.07593195
1 2.98987556 -2.76907000 -5.64918722 0.08086179 0.14544642 -0.10593881
1 1.88917395 -1.72276356 -6.58443237 0.17783053 0.06112650 -0.03723989
1 2.01099840 -3.45756655 -6.96428022 -0.04671133 0.15351095 0.17298811
1 -3.56460239 -1.56620214 -5.65729870 0.15936999 -0.08367458 0.14069913
1 -3.79148070 -3.16008942 -4.89632221 -0.11061308 0.12737515 -0.00278759
1 -3.99422940 -1.68215852 -3.93419609 0.17117188 -0.11743525 -0.12940324
1 -0.15066934 -1.70996646 -0.93335919 -0.19462345 0.00243329 -0.22554048
1 -0.07494745 -0.45120802 -2.17697128 -0.15503716 0.03083733 -0.05588401
1 0.24201435 -3.45197898 -2.53196973 -0.14732230 -0.05448739 -0.04717928
6 -1.04109962 -1.58090218 1.63761670 0.03869257 0.07988117 0.05869320
6 0.32562571 -1.32099289 1.75958730 -0.31698545 0.28080228 0.13799844
6 -1.96821838 -0.61921738 2.04119625 0.39232450 0.09433592 0.05555080
6 0.76168394 -0.09561173 2.27278023 -0.36324324 0.04088367 -0.02461937
6 -1.53000544 0.60323143 2.55956214 0.33463301 -0.27301646 -0.11627774
6 -0.15744150 0.89591801 2.67147006 -0.07454612 -0.30098186 -0.00774623
7 1.05856627 0.90794140 5.27007322 0.27242665 0.13687230 -0.16440884
6 0.32334416 2.10051190 4.82262562 -0.17117496 -0.58838520 0.14139744
6 1.71696142 4.20775627 2.85914307 0.47291427 0.17684785 0.13908088
6 0.26481373 4.66295629 2.96524907 -0.26401039 0.43273046 0.18302056
6 1.68422990 2.68490231 2.74355994 0.41976129 -0.41399533 -0.02537116
6 -0.58345408 3.40069874 2.85357600 -0.48410218 -0.00984631 -0.04445647
6 0.31387061 2.22279031 3.27774371 -0.07725710 -0.11301964 -0.18361654
1 -1.38446681 -2.52988214 1.23388933 0.06926610 0.20882058 0.05719116
1 1.04870146 -2.07658637 1.46608879 -0.09515405 0.13194349 0.05050320
1 -3.03133557 -0.82417747 1.95463520 0.20500403 0.06070329 0.01315069
1 1.82841764 0.07202243 2.38434768 -0.19766969 0.08549235 -0.00550371
1 -2.27491979 1.32421488 2.87916498 0.18880709 -0.01846054 -0.04677407
1 0.73051298 0.08384594 4.76179791 0.06383747 0.38100650 0.55314717
1 0.96638379 0.77329277 6.27594221 -0.03781582 -0.05800414 -0.53716466
1 0.76693951 2.99500799 5.27252083 0.02105890 -0.14436347 -0.13241606
1 -0.70970781 2.03143086 5.18092426 -0.12724813 0.30507455 -0.24317312
1 2.21073683 4.65181881 1.98880069 0.02629213 -0.07197553 0.29215988
1 2.26744443 4.50676262 3.75714748 0.00504194 0.01778897 -0.28010037
1 0.00935187 5.37755037 2.17620095 -0.02825028 -0.06596892 0.29539639
1 0.09731716 5.14490781 3.93402467 -0.03535322 0.03535322 -0.25888103
1 2.51337810 2.22891456 3.29458535 -0.20258153 -0.04400036 -0.18248011
1 1.78519357 2.41199040 1.68760900 -0.09157610 -0.12425794 0.20959088
1 -0.89295685 3.27279175 1.81032836 0.01259945 -0.15305381 0.22313187
1 -1.48642553 3.47953991 3.46772533 0.08275978 -0.10882822 -0.19961910
63
Properties=Z:I:1:pos:R:3:forces:R:3 total_energy=-36063.53287959386
8 -3.07909413 2.71191227 -6.45256739 0.00239987 0.10945043 0.31801904
8 -3.54290249 -0.51871005 -3.38407834 0.40303522 0.26293978 -0.15900746
8 0.41518808 0.69926562 1.08832388 0.47213060 -0.62794732 0.29075760
6 -2.70526563 1.67923288 -6.99305638 -0.29162046 0.96129477 -0.46572134
6 -3.27818716 0.47107391 -4.06109028 -0.66678284 -1.16737095 0.30325009
6 0.53497103 -0.01711452 -1.18517996 -0.38989584 0.58879812 -0.26729318
6 -0.65456096 2.03431358 -0.58757330 0.27604625 -0.72384442 -1.04884760
6 0.20181813 0.18514251 -2.53709096 -0.37796796 0.85785713 1.23094565
6 -0.98934760 2.23089391 -1.94047374 0.65636009 -1.05213656 0.44358721
6 0.10301230 0.90473228 -0.21233400 -0.65487451 0.71124703 -1.03990890
6 -0.56395539 1.30595930 -2.91446808 -0.12518971 -0.06202638 0.20021766
7 -4.10864475 1.51669681 -4.14978387 0.12206941 1.02542894 -0.13427600
7 -2.16334829 0.64635900 -6.34368596 0.14166638 -1.00301919 0.45347105
6 -2.83829552 1.52628349 -8.48950334 0.09099760 0.01691222 0.00473135
6 -5.39232945 1.63861985 -3.46155839 0.33201665 -0.34304155 -0.04818663
6 -0.94060444 1.50259494 -4.36955087 0.00245489 0.41296894 0.36720892
6 -1.97723965 0.49101717 -4.88907905 0.49158101 0.37544777 -0.00291306
1 0.00458234 1.34661322 1.66029328 -0.10989060 0.17748343 -0.13336325
1 1.11395851 -0.87505788 -0.87802709 -0.00626733 0.00369468 0.04034116
1 -0.98239806 2.74065839 0.15863866 -0.01428609 0.05519393 0.11942272
1 0.52611169 -0.52855936 -3.28084004 0.01836746 0.00520700 0.00052399
1 -1.58304283 3.08716508 -2.23019201 0.03298780 -0.03797883 -0.01922467
1 -3.83646669 2.25709634 -4.78941107 -0.08222036 -0.14967075 0.09214740
1 -1.90115960 -0.14363936 -6.90934192 -0.09028129 0.04628864 0.13402763
1 -3.20550433 2.46218559 -8.90884140 0.06021427 -0.18040215 0.12386302
1 -1.86660323 1.29406209 -8.92093971 -0.06007440 -0.11156028 -0.14129666
1 -3.54425051 0.72729427 -8.70785938 0.06536008 -0.04159226 -0.12713244
1 -5.53103036 2.66482772 -3.11884303 0.05567935 -0.10983044 -0.09315784
1 -5.42420171 0.96919057 -2.59884827 0.11076838 0.09758066 -0.25523829
1 -6.20128432 1.37418907 -4.14465024 -0.04517998 0.02730309 0.13552452
1 -1.32658321 2.51381583 -4.50037205 0.04312258 -0.08566513 -0.09038465
1 -0.03423642 1.41892365 -4.97037403 -0.13714175 -0.05230863 -0.16201257
1 -1.53618501 -0.49450628 -4.73860123 -0.33030481 0.02653484 -0.09108245
6 0.91232353 -4.51790391 2.75734195 0.07340815 0.17625958 0.07253552
6 2.27762775 -4.22883390 2.77303133 -0.30907416 0.29595946 0.18688853
6 0.00829255 -3.61725997 3.32397806 0.43345757 0.15784224 0.07217197
6 2.73433481 -3.03561662 3.34141217 -0.38489401 0.06540841 0.03148370
6 0.46943050 -2.42719839 3.89881933 0.36197414 -0.24928412 -0.17424280
6 1.84013604 -2.09954440 3.90146196 -0.08708335 -0.34830203 -0.07578848
7 3.26526512 -2.24965125 6.39797862 0.29897948 0.10763266 -0.18053327
6 2.46930144 -1.05411702 6.08974167 -0.10797667 -0.68218170 0.16759341
6 3.70493766 1.19540620 4.17339493 0.29727741 0.07946002 0.17567440
6 2.26303702 1.61272247 3.95388661 -0.15913139 0.47471507 -0.12640790
6 3.68738266 -0.31161809 3.97541341 0.44145782 -0.33119184 -0.01092566
6 1.40636138 0.40304502 4.33821601 -0.54986181 0.06023484 0.08211700
6 2.34797122 -0.80800442 4.56507310 -0.03716173 -0.15951654 -0.13000590
1 0.55533953 -5.44069788 2.30978778 0.05520987 0.16396661 0.07827526
1 2.98789501 -4.92974991 2.34510591 -0.11025673 0.12905819 0.07748901
1 -1.05429035 -3.84182920 3.32022988 0.18973012 0.06599514 0.01545132
1 3.80307261 -2.84870011 3.35263954 -0.20021354 0.09456990 0.02618825
1 -0.25522800 -1.75616898 4.34789580 0.16132043 -0.00638971 -0.07152919
1 2.92477706 -3.04738544 5.85616260 0.09836536 0.35355686 0.56326498
1 3.25257625 -2.45480177 7.39610187 -0.08629968 -0.03334827 -0.54387782
1 2.91518358 -0.18103859 6.57763696 0.00598193 -0.11824207 -0.14011446
1 1.46684732 -1.18904758 6.51051930 -0.17182237 0.35608683 -0.22842731
1 4.38610426 1.69307976 3.47601800 -0.03997247 -0.08380776 0.25730957
1 4.01635582 1.43830421 5.19430144 0.03625670 -0.00378570 -0.16044214
1 2.11239755 1.85604069 2.89758114 0.00362423 0.01219887 0.18008179
1 2.00875155 2.49441429 4.55017147 -0.01739610 -0.08664421 -0.23426270
1 4.55109940 -0.78475397 4.45361390 -0.21774334 -0.06968571 -0.15304147
1 3.73049873 -0.52156046 2.90134552 -0.09332291 -0.08618501 0.18507384