56
Properties=Z:I:1:pos:R:3:force:R:3 energy=-1432.120634185038
  8     -8.59934725     -7.11817832     -1.21108282      0.00458117      0.00620097     -0.00206842
  8     -3.88949716     -3.91252998     -6.46087118      0.00285891     -0.00532071      0.00675114
  6     -6.63766851     -8.27084438     -1.62836597     -0.03203011     -0.00837419      0.00537497
  6     -4.97274177     -3.27655301     -4.50930944      0.01391827     -0.00635435     -0.01584094
  6     -0.56500298      0.67220725     -3.29691407     -0.00540147     -0.00385949      0.00005533
  6     -0.94973447     -0.87028873     -1.29538883     -0.00440656      0.00652300      0.01206539
  6     -1.69622616      2.41338945      5.20501166      0.00238430     -0.00952087     -0.01800615
  6     -1.44875880      4.91089310      4.33192370      0.00155525     -0.00785416     -0.01977030
  6     -1.57225127      0.36974790      3.50680670      0.00176654      0.01073990      0.00285643
  6     -1.09008220      5.38416489      1.74414013     -0.00018239     -0.00514402      0.00963776
  6     -1.16540637      0.77787328      0.90287501     -0.00391214      0.00709481      0.01588578
  6     -0.92941994      3.33333192      0.07477463     -0.00364204     -0.02199785      0.00527037
  7     -0.56573219      3.15915541     -2.50018800      0.00609426      0.02017898     -0.01841696
  7     -6.81227078     -1.54730613     -4.62656895     -0.01476960      0.01123956      0.01053875
  7     -4.40895578     -7.13306933     -1.89918398      0.02363171      0.01693549     -0.00355410
  6     -6.66602091    -11.11778123     -1.84545595      0.00147514      0.00121695      0.00154011
  6     -8.31637204     -0.55586986     -2.53179064      0.00247351     -0.00663631      0.00306333
  6     -1.35332723     -3.66554052     -1.43122401      0.00569403      0.00034018      0.00151624
  6     -4.11445199     -4.38030375     -1.95055679     -0.00716843      0.00076387      0.00518809
  1     -0.44191223      0.03123014     -5.24201047      0.00147276      0.01080540      0.00303887
  1     -1.96060149      2.06412160      7.20198571      0.00007761     -0.00060772     -0.00207502
  1     -1.51505166      6.46357625      5.66002194      0.00022910     -0.00080931     -0.00256073
  1     -1.75991419     -1.53869958      4.20424847     -0.00035971     -0.00078159      0.00155921
  1     -0.89909087      7.29902472      1.06903744     -0.00004726      0.00128781     -0.00048314
  1     -0.52394418      4.64324996     -3.69777054     -0.00042486     -0.00466104      0.00466130
  1     -7.24067903     -0.95355354     -6.38458341      0.00325043     -0.00275935      0.00153607
  1     -2.88824896     -8.20085119     -2.30022653     -0.00093748      0.00281882     -0.00218563
  1     -6.20661601    -11.65211505     -3.77796545      0.00138124     -0.00238113      0.00080072
  1     -8.54923215    -11.80099432     -1.37026662      0.00385352      0.00220473     -0.00107722
  1     -5.29219317    -11.92225692     -0.54396813      0.00106966     -0.00322989     -0.00201856
  1     -9.72658045      0.76642186     -3.24645024      0.00416845     -0.00234054     -0.00081079
  1     -7.10339456      0.42608056     -1.18189836     -0.00272820      0.00054258     -0.00075877
  1     -9.29521436     -2.10319203     -1.57710072      0.00079468      0.00285849     -0.00021828
  1     -0.77382794     -4.49374579      0.36477642     -0.00183393     -0.00302537     -0.00131430
  1     -0.14476636     -4.44725531     -2.90759044     -0.00232454     -0.00122277     -0.00002216
  1     -5.25950788     -3.57604207     -0.44230847     -0.00131269     -0.00374196     -0.00050132
  8      7.55983893      0.72516159      6.41296555     -0.00174622      0.00722451     -0.00371661
  8      8.06012771      0.40998842      2.24933829     -0.00514792      0.01595755     -0.01768890
  8      6.31741559      4.35440413     -3.25103365     -0.00068328     -0.00097389      0.00062049
  8      5.21628431      5.89408544      5.64999503      0.00565315     -0.00855328     -0.00309476
  8      7.57369051      6.94504258      1.14446285     -0.00162528     -0.00311602     -0.00253809
  6      8.33690702      1.53669070     -0.20420518      0.00143429      0.00353837     -0.00323989
  6      7.76655296      2.23851301      4.21843616     -0.00051881     -0.01942049      0.00824574
  6      5.99838951      3.12092210     -0.84916319     -0.00876982      0.00402834      0.00359301
  6      5.40485080      3.89829543      3.81899396      0.01230259      0.01718881      0.00021878
  6      5.55127054      5.12888924      1.19914909      0.00560856     -0.00692724     -0.01295015
  1      8.43783649     -0.84658341      6.07017767     -0.00323741      0.01013619     -0.00050186
  1      4.72248880      5.06705723     -3.82213427      0.00963687     -0.00883822      0.00838341
  1      6.52289468      7.14141343      5.29019860     -0.00849150     -0.01105074     -0.00129114
  1      7.94587470      7.36436287     -0.61208430     -0.00597262     -0.00668478      0.01262485
  1      8.56460656      0.04617243     -1.61921121     -0.00108800      0.00028032      0.00772984
  1     10.03594594      2.71701430     -0.25585146     -0.00201969      0.00010505      0.00048155
  1      9.44672391      3.44413577      4.32477849      0.00051557     -0.00061415     -0.00175396
  1      4.37058774      1.84286925     -0.91661655      0.00098966      0.00220301      0.00067351
  1      3.72818510      2.69256408      3.93831200      0.00217234      0.00554792      0.00214669
  1      3.77357150      6.10150321      0.80693065     -0.00030625     -0.00109976      0.00242691
